Generated with LigParGen (israel.cabezadevaca@yale.edu)
    6
    1MOL    C1     1  -0.037   0.001  -0.001
    1MOL    O1     2   0.092  -0.051  -0.030
    1MOL    H1     3  -0.052   0.003   0.107
    1MOL    H2     4  -0.047   0.101  -0.042
    1MOL    H3     5  -0.112  -0.064  -0.046
    1MOL    H4     6   0.156   0.009   0.012
  10.00000  10.00000  10.00000
