;---------------------------------------------
;        Generated with LigParGen 
;        William L. Jorgensen Lab
;     Author: israel.cabezadevaca@yale.edu
;    OPLS Force Field with CM1A derived Atomic Charges
;---------------------------------------------
[ defaults ]
; nbfunc        comb-rule       gen-pairs       fudgeLJ fudgeQQ
    1               3              yes            0.5     0.5

[ atomtypes ]
  opls_800    CT    12.0110     0.000    A    3.50000E-01   2.76144E-01
  opls_801    OH    15.9990     0.000    A    3.12000E-01   7.11280E-01
  opls_802    HC     1.0080     0.000    A    2.50000E-01   1.25520E-01
  opls_803    HC     1.0080     0.000    A    2.50000E-01   1.25520E-01
  opls_804    HC     1.0080     0.000    A    2.50000E-01   1.25520E-01
  opls_805    HO     1.0080     0.000    A    0.00000E+00   0.00000E+00

[ moleculetype ]
; Name               nrexcl
  MOL                  3

[ atoms ]
;   nr       type  resnr residue  atom   cgnr     charge       mass
     1   opls_800      1    MOL   C1       1     0.0508    12.0110 
     2   opls_801      1    MOL   O1       1    -0.6872    15.9990 
     3   opls_802      1    MOL   H1       1     0.0767     1.0080 
     4   opls_803      1    MOL   H2       1     0.0767     1.0080 
     5   opls_804      1    MOL   H3       1     0.0767     1.0080 
     6   opls_805      1    MOL   H4       1     0.4063     1.0080 

[ bonds ]
;  ai    aj   funct      c0       c1
    2    1    1      0.1410    267776.000
    3    1    1      0.1090    284512.000
    4    1    1      0.1090    284512.000
    5    1    1      0.1090    284512.000
    6    2    1      0.0945    462750.400

[angles]
;  ai    aj   ak  funct      c0       c1 
    3    1    2    1       109.500    292.880
    4    1    2    1       109.500    292.880
    5    1    2    1       109.500    292.880
    6    2    1    1       108.500    460.240
    4    1    3    1       107.800    276.144
    5    1    3    1       107.800    276.144
    5    1    4    1       107.800    276.144
[ dihedrals ]
;  PROPER DIHEDRAL ANGLES
;  ai    aj   ak   al funct      c0       c1      c2      c3       c4     c5
    6    2    1    3    3       0.736   2.209    0.000  -2.946  -0.000   0.000
    6    2    1    4    3       0.736   2.209    0.000  -2.946  -0.000   0.000
    6    2    1    5    3       0.736   2.209    0.000  -2.946  -0.000   0.000
[ dihedrals ]
;IMPROPER DIHEDRAL ANGLES
;  ai    aj   ak   al funct      c0       c1      c2      c3       c4     c5
[ pairs ]
;  ai    aj funct
    3    6    1
    4    6    1
    5    6    1
