;---------------------------------------------
;        Generated with LigParGen 
;        William L. Jorgensen Lab
;     Author: israel.cabezadevaca@yale.edu
;    OPLS Force Field with CM1A derived Atomic Charges
;---------------------------------------------
[ defaults ]
; nbfunc        comb-rule       gen-pairs       fudgeLJ fudgeQQ
    1               3              yes            0.5     0.5

[ atomtypes ]
  opls_800    CT    12.0110     0.000    A    3.50000E-01   2.76144E-01
  opls_801    CT    12.0110     0.000    A    3.50000E-01   2.76144E-01
  opls_802    OH    15.9990     0.000    A    3.12000E-01   7.11280E-01
  opls_803    HC     1.0080     0.000    A    2.50000E-01   1.25520E-01
  opls_804    HC     1.0080     0.000    A    2.50000E-01   1.25520E-01
  opls_805    HC     1.0080     0.000    A    2.50000E-01   1.25520E-01
  opls_806    HC     1.0080     0.000    A    2.50000E-01   1.25520E-01
  opls_807    HC     1.0080     0.000    A    2.50000E-01   1.25520E-01
  opls_808    HO     1.0080     0.000    A    0.00000E+00   0.00000E+00

[ moleculetype ]
; Name               nrexcl
  MOL                  3

[ atoms ]
;   nr       type  resnr residue  atom   cgnr     charge       mass
     1   opls_801      1    MOL   C1       1    -0.2894    12.0110 
     2   opls_800      1    MOL   C2       1     0.1098    12.0110 
     3   opls_802      1    MOL   O1       1    -0.6887    15.9990 
     4   opls_803      1    MOL   H1       1     0.0915     1.0080 
     5   opls_804      1    MOL   H2       1     0.0915     1.0080 
     6   opls_805      1    MOL   H3       1     0.0915     1.0080 
     7   opls_806      1    MOL   H4       1     0.0939     1.0080 
     8   opls_807      1    MOL   H5       1     0.0939     1.0080 
     9   opls_808      1    MOL   H6       1     0.4060     1.0080 

[ bonds ]
;  ai    aj   funct      c0       c1
    1    2    1      0.1529    224262.400
    3    2    1      0.1410    267776.000
    4    1    1      0.1090    284512.000
    5    1    1      0.1090    284512.000
    6    1    1      0.1090    284512.000
    7    2    1      0.1090    284512.000
    8    2    1      0.1090    284512.000
    9    3    1      0.0945    462750.400

[angles]
;  ai    aj   ak  funct      c0       c1 
    3    2    1    1       109.500    418.400
    4    1    2    1       110.700    313.800
    5    1    2    1       110.700    313.800
    6    1    2    1       110.700    313.800
    7    2    1    1       110.700    313.800
    8    2    1    1       110.700    313.800
    9    3    2    1       108.500    460.240
    7    2    3    1       109.500    292.880
    8    2    3    1       109.500    292.880
    5    1    4    1       107.800    276.144
    6    1    4    1       107.800    276.144
    6    1    5    1       107.800    276.144
    8    2    7    1       107.800    276.144
[ dihedrals ]
;  PROPER DIHEDRAL ANGLES
;  ai    aj   ak   al funct      c0       c1      c2      c3       c4     c5
    4    1    2    3    3       0.628   1.883    0.000  -2.510  -0.000   0.000
    5    1    2    3    3       0.628   1.883    0.000  -2.510  -0.000   0.000
    6    1    2    3    3       0.628   1.883    0.000  -2.510  -0.000   0.000
    7    2    1    4    3       0.628   1.883    0.000  -2.510  -0.000   0.000
    8    2    1    4    3       0.628   1.883    0.000  -2.510  -0.000   0.000
    9    3    2    1    3       0.418   2.929   -0.837  -2.510  -0.000   0.000
    7    2    1    5    3       0.628   1.883    0.000  -2.510  -0.000   0.000
    8    2    1    5    3       0.628   1.883    0.000  -2.510  -0.000   0.000
    7    2    1    6    3       0.628   1.883    0.000  -2.510  -0.000   0.000
    8    2    1    6    3       0.628   1.883    0.000  -2.510  -0.000   0.000
    9    3    2    7    3       0.736   2.209    0.000  -2.946  -0.000   0.000
    9    3    2    8    3       0.736   2.209    0.000  -2.946  -0.000   0.000
[ dihedrals ]
;IMPROPER DIHEDRAL ANGLES
;  ai    aj   ak   al funct      c0       c1      c2      c3       c4     c5
[ pairs ]
;  ai    aj funct
    1    9    1
    3    4    1
    3    5    1
    3    6    1
    4    7    1
    4    8    1
    5    7    1
    5    8    1
    6    7    1
    6    8    1
    7    9    1
    8    9    1
