Generated with LigParGen (israel.cabezadevaca@yale.edu)
    9
    1MOL    C1     1  -0.089   0.017  -0.001
    1MOL    C2     2   0.046  -0.052  -0.005
    1MOL    O1     3   0.144   0.031   0.057
    1MOL    H1     4  -0.085   0.113  -0.055
    1MOL    H2     5  -0.166  -0.045  -0.047
    1MOL    H3     6  -0.118   0.040   0.102
    1MOL    H4     7   0.077  -0.072  -0.107
    1MOL    H5     8   0.042  -0.146   0.050
    1MOL    H6     9   0.148   0.114   0.007
  10.00000  10.00000  10.00000
