Generated with LigParGen (israel.cabezadevaca@yale.edu)
    6
    1MOL    O00    1   0.093  -0.003   0.053
    1MOL    C01    2  -0.037  -0.001   0.001
    1MOL    H02    3  -0.104  -0.023   0.087
    1MOL    H03    4  -0.059   0.099  -0.040
    1MOL    H04    5  -0.048  -0.075  -0.079
    1MOL    H05    6   0.157   0.002  -0.022
  10.00000  10.00000  10.00000
